<?xml version="1.0"?>
<VTKFile type="UnstructuredGrid"  version="0.1"  >
<UnstructuredGrid>
<Piece  NumberOfPoints="16179" NumberOfCells="31996">
<Points>
<DataArray  type="Float64"  NumberOfComponents="3"  format="ascii">0 0 0  0 1 0  2 1 0  2 0 0  0.5 0.7 0  0.7 0.5 0  0.5 0.3 0  0.3 0.5 0  0.8 0.5 0  1 0.3 0  1.2 0.5 0  1 0.7 0  1.5 0.3 0  1.7 0.5 0  1.5 0.7 0  1.3 0.5 0  0 0.01666666666666667 0  0 0.03333333333333333 0  0 0.05 0  0 0.06666666666666667 0  0 0.08333333333333333 0  0 0.1 0  0 0.1166666666666667 0  0 0.1333333333333333 0  0 0.15 0  0 0.1666666666666667 0  0 0.1833333333333333 0  0 0.2 0  0 0.2166666666666667 0  0 0.2333333333333333 0  0 0.25 0  0 0.2666666666666667 0  0 0.2833333333333333 0  0 0.3 0  0 0.3166666666666667 0  0 0.3333333333333333 0  0 0.35 0  0 0.3666666666666666 0  0 0.3833333333333334 0  0 0.4 0  0 0.4166666666666667 0  0 0.4333333333333333 0  0 0.45 0  0 0.4666666666666667 0  0 0.4833333333333333 0  0 0.5 0  0 0.5166666666666667 0  0 0.5333333333333333 0  0 0.55 0  0 0.5666666666666667 0  0 0.5833333333333334 0  0 0.6 0  0 0.6166666666666667 0  0 0.6333333333333333 0  0 0.65 0  0 0.6666666666666666 0  0 0.6833333333333333 0  0 0.7 0  0 0.7166666666666667 0  0 0.7333333333333333 0  0 0.75 0  0 0.7666666666666667 0  0 0.7833333333333333 0  0 0.8 0  0 0.8166666666666667 0  0 0.8333333333333334 0  0 0.85 0  0 0.8666666666666667 0  0 0.8833333333333333 0  0 0.9 0  0 0.9166666666666666 0  0 0.9333333333333333 0  0 0.95 0  0 0.9666666666666667 0  0 0.9833333333333333 0  0.01666666666666667 1 0  0.03333333333333333 1 0  0.05 1 0  0.06666666666666667 1 0  0.08333333333333333 1 0  0.1 1 0  0.1166666666666667 1 0  0.1333333333333333 1 0  0.15 1 0  0.1666666666666667 1 0  0.1833333333333333 1 0  0.2 1 0  0.2166666666666667 1 0  0.2333333333333333 1 0  0.25 1 0  0.2666666666666667 1 0  0.2833333333333333 1 0  0.3 1 0  0.3166666666666667 1 0  0.3333333333333333 1 0  0.35 1 0  0.3666666666666666 1 0  0.3833333333333334 1 0  0.4 1 0  0.4166666666666667 1 0  0.4333333333333333 1 0  0.45 1 0  0.4666666666666667 1 0  0.4833333333333333 1 0  0.5 1 0  0.5166666666666667 1 0  0.5333333333333333 1 0  0.55 1 0  0.5666666666666667 1 0  0.5833333333333334 1 0  0.6 1 0  0.6166666666666667 1 0  0.6333333333333333 1 0  0.65 1 0  0.6666666666666666 1 0  0.6833333333333333 1 0  0.7 1 0  0.7166666666666667 1 0  0.7333333333333333 1 0  0.75 1 0  0.7666666666666667 1 0  0.7833333333333333 1 0  0.8 1 0  0.8166666666666667 1 0  0.8333333333333334 1 0  0.85 1 0  0.8666666666666667 1 0  0.8833333333333333 1 0  0.9 1 0  0.9166666666666666 1 0  0.9333333333333333 1 0  0.95 1 0  0.9666666666666667 1 0  0.9833333333333333 1 0  1 1 0  1.016666666666667 1 0  1.033333333333333 1 0  1.05 1 0  1.066666666666667 1 0  1.083333333333333 1 0  1.1 1 0  1.116666666666667 1 0  1.133333333333333 1 0  1.15 1 0  1.166666666666667 1 0  1.183333333333333 1 0  1.2 1 0  1.216666666666667 1 0  1.233333333333333 1 0  1.25 1 0  1.266666666666667 1 0  1.283333333333333 1 0  1.3 1 0  1.316666666666667 1 0  1.333333333333333 1 0  1.35 1 0  1.366666666666667 1 0  1.383333333333333 1 0  1.4 1 0  1.416666666666667 1 0  1.433333333333333 1 0  1.45 1 0  1.466666666666667 1 0  1.483333333333333 1 0  1.5 1 0  1.516666666666667 1 0  1.533333333333333 1 0  1.55 1 0  1.566666666666667 1 0  1.583333333333333 1 0  1.6 1 0  1.616666666666667 1 0  1.633333333333333 1 0  1.65 1 0  1.666666666666667 1 0  1.683333333333333 1 0  1.7 1 0  1.716666666666667 1 0  1.733333333333333 1 0  1.75 1 0  1.766666666666667 1 0  1.783333333333333 1 0  1.8 1 0  1.816666666666667 1 0  1.833333333333333 1 0  1.85 1 0  1.866666666666667 1 0  1.883333333333333 1 0  1.9 1 0  1.916666666666667 1 0  1.933333333333333 1 0  1.95 1 0  1.966666666666667 1 0  1.983333333333333 1 0  2 0.9833333333333333 0  2 0.9666666666666667 0  2 0.95 0  2 0.9333333333333333 0  2 0.9166666666666666 0  2 0.9 0  2 0.8833333333333333 0  2 0.8666666666666667 0  2 0.85 0  2 0.8333333333333334 0  2 0.8166666666666667 0  2 0.8 0  2 0.7833333333333333 0  2 0.7666666666666666 0  2 0.75 0  2 0.7333333333333334 0  2 0.7166666666666667 0  2 0.7 0  2 0.6833333333333333 0  2 0.6666666666666667 0  2 0.65 0  2 0.6333333333333333 0  2 0.6166666666666667 0  2 0.6 0  2 0.5833333333333333 0  2 0.5666666666666667 0  2 0.55 0  2 0.5333333333333333 0  2 0.5166666666666666 0  2 0.5 0  2 0.4833333333333333 0  2 0.4666666666666667 0  2 0.45 0  2 0.4333333333333333 0  2 0.4166666666666666 0  2 0.4 0  2 0.3833333333333333 0  2 0.3666666666666667 0  2 0.35 0  2 0.3333333333333334 0  2 0.3166666666666667 0  2 0.3 0  2 0.2833333333333333 0  2 0.2666666666666667 0  2 0.25 0  2 0.2333333333333333 0  2 0.2166666666666667 0  2 0.2 0  2 0.1833333333333333 0  2 0.1666666666666666 0  2 0.15 0  2 0.1333333333333333 0  2 0.1166666666666667 0  2 0.09999999999999998 0  2 0.08333333333333337 0  2 0.06666666666666665 0  2 0.05000000000000004 0  2 0.03333333333333333 0  2 0.01666666666666672 0  1.983333333333333 0 0  1.966666666666667 0 0  1.95 0 0  1.933333333333333 0 0  1.916666666666667 0 0  1.9 0 0  1.883333333333333 0 0  1.866666666666667 0 0  1.85 0 0  1.833333333333333 0 0  1.816666666666667 0 0  1.8 0 0  1.783333333333333 0 0  1.766666666666667 0 0  1.75 0 0  1.733333333333333 0 0  1.716666666666667 0 0  1.7 0 0  1.683333333333333 0 0  1.666666666666667 0 0  1.65 0 0  1.633333333333333 0 0  1.616666666666667 0 0  1.6 0 0  1.583333333333333 0 0  1.566666666666667 0 0  1.55 0 0  1.533333333333333 0 0  1.516666666666667 0 0  1.5 0 0  1.483333333333333 0 0  1.466666666666667 0 0  1.45 0 0  1.433333333333333 0 0  1.416666666666667 0 0  1.4 0 0  1.383333333333333 0 0  1.366666666666667 0 0  1.35 0 0  1.333333333333333 0 0  1.316666666666667 0 0  1.3 0 0  1.283333333333333 0 0  1.266666666666667 0 0  1.25 0 0  1.233333333333333 0 0  1.216666666666667 0 0  1.2 0 0  1.183333333333333 0 0  1.166666666666667 0 0  1.15 0 0  1.133333333333333 0 0  1.116666666666667 0 0  1.1 0 0  1.083333333333333 0 0  1.066666666666667 0 0  1.05 0 0  1.033333333333333 0 0  1.016666666666667 0 0  1 0 0  0.9833333333333334 0 0  0.9666666666666666 0 0  0.95 0 0  0.9333333333333333 0 0  0.9166666666666667 0 0  0.8999999999999999 0 0  0.8833333333333333 0 0  0.8666666666666667 0 0  0.8500000000000001 0 0  0.8333333333333333 0 0  0.8166666666666667 0 0  0.8 0 0  0.7833333333333334 0 0  0.7666666666666666 0 0  0.75 0 0  0.7333333333333334 0 0  0.7166666666666666 0 0  0.7 0 0  0.6833333333333333 0 0  0.6666666666666667 0 0  0.6499999999999999 0 0  0.6333333333333333 0 0  0.6166666666666667 0 0  0.6000000000000001 0 0  0.5833333333333333 0 0  0.5666666666666667 0 0  0.55 0 0  0.5333333333333334 0 0  0.5166666666666666 0 0  0.5 0 0  0.4833333333333334 0 0  0.4666666666666666 0 0  0.45 0 0  0.4333333333333333 0 0  0.4166666666666667 0 0  0.3999999999999999 0 0  0.3833333333333333 0 0  0.3666666666666667 0 0  0.3500000000000001 0 0  0.3333333333333333 0 0  0.3166666666666667 0 0  0.3 0 0  0.2833333333333334 0 0  0.2666666666666666 0 0  0.25 0 0  0.2333333333333334 0 0  0.2166666666666666 0 0  0.2 0 0  0.1833333333333333 0 0  0.1666666666666667 0 0  0.1499999999999999 0 0  0.1333333333333333 0 0  0.1166666666666667 0 0  0.1000000000000001 0 0  0.08333333333333326 0 0  0.06666666666666665 0 0  0.05000000000000004 0 0  0.03333333333333344 0 0  0.01666666666666661 0 0  0.5098135348654835 0.6997590912410344 0  0.519603428065912 0.6990369453344394 0  0.5293460948910724 0.6978353019929562 0  0.5390180644032256 0.696157056080646 0  0.5485960359806528 0.6940062506389088 0  0.5580569354508924 0.6913880671464417 0  0.5673779706784439 0.6883088130366042 0  0.5765366864730179 0.6847759065022573 0  0.5855110186860564 0.6807978586246887 0  0.5942793473651995 0.676384252869671 0  0.6028205488386443 0.6715457220000545 0  0.6111140466039203 0.6662939224605091 0  0.6191398608984866 0.6606415062961291 0  0.6268786568327291 0.6546020906725474 0  0.6343117909694036 0.6481902250709918 0  0.6414213562373094 0.6414213562373094 0  0.6481902250709918 0.6343117909694037 0  0.6546020906725473 0.6268786568327291 0  0.6606415062961289 0.6191398608984866 0  0.666293922460509 0.6111140466039204 0  0.6715457220000544 0.6028205488386443 0  0.676384252869671 0.5942793473651996 0  0.6807978586246886 0.5855110186860565 0  0.6847759065022574 0.5765366864730179 0  0.6883088130366042 0.567377970678444 0  0.6913880671464417 0.5580569354508925 0  0.6940062506389088 0.5485960359806529 0  0.696157056080646 0.5390180644032257 0  0.6978353019929562 0.5293460948910724 0  0.6990369453344394 0.5196034280659121 0  0.6997590912410344 0.5098135348654836 0  0.6997590912410344 0.4901864651345164 0  0.6990369453344394 0.4803965719340879 0  0.6978353019929562 0.4706539051089277 0  0.696157056080646 0.4609819355967745 0  0.6940062506389088 0.4514039640193473 0  0.6913880671464417 0.4419430645491076 0  0.6883088130366042 0.4326220293215561 0  0.6847759065022574 0.4234633135269822 0  0.6807978586246888 0.4144889813139438 0  0.6763842528696711 0.4057206526348007 0  0.6715457220000545 0.3971794511613559 0  0.6662939224605091 0.3888859533960798 0  0.6606415062961292 0.3808601391015136 0  0.6546020906725476 0.3731213431672712 0  0.648190225070992 0.3656882090305966 0  0.6414213562373097 0.3585786437626908 0  0.6343117909694039 0.3518097749290084 0  0.6268786568327294 0.3453979093274528 0  0.6191398608984868 0.3393584937038713 0  0.6111140466039207 0.3337060775394911 0  0.6028205488386446 0.3284542779999458 0  0.5942793473651997 0.3236157471303291 0  0.5855110186860566 0.3192021413753114 0  0.5765366864730181 0.3152240934977427 0  0.5673779706784442 0.3116911869633959 0  0.5580569354508926 0.3086119328535583 0  0.5485960359806529 0.3059937493610912 0  0.5390180644032257 0.303842943919354 0  0.5293460948910724 0.3021646980070439 0  0.5196034280659122 0.3009630546655607 0  0.5098135348654836 0.3002409087589656 0  0.4901864651345165 0.3002409087589655 0  0.480396571934088 0.3009630546655606 0  0.4706539051089277 0.3021646980070438 0  0.46098193
[...]
<PointData  Scalars="f_20"> 
<DataArray  type="Float64"  Name="f_20"  format="ascii">7.0000000000000000e+01  7.0000000000000000e+01  2.0000000000000000e+01  2.0000000000000000e+01  5.5976560324040361e+02  1.3647209452926636e+03  1.6212714232842891e+03  4.3020490003727224e+02  1.3673076466607029e+03  1.9099812343107626e+03  1.1501387977223117e+03  8.9142539858133557e+02  1.1522809528012847e+03  7.1256416652427924e+02  7.8816959209944025e+02  1.0814296405104440e+03  7.0000000000000000e+01  7.0000000000000000e+01  7.0000000000000000e+01  7.0000000000000000e+01  7.0000000000000000e+01  7.0000000000000000e+01  7.0000000000000000e+01  7.0000000000000000e+01  7.0000000000000000e+01  7.0000000000000000e+01  7.0000000000000000e+01  7.0000000000000000e+01  7.0000000000000000e+01  7.0000000000000000e+01  7.0000000000000000e+01  7.0000000000000000e+01  7.0000000000000000e+01  7.0000000000000000e+01  7.0000000000000000e+01  7.0000000000000000e+01  7.0000000000000000e+01  7.0000000000000000e+01  7.0000000000000000e+01  7.0000000000000000e+01  7.0000000000000000e+01  7.0000000000000000e+01  7.0000000000000000e+01  7.0000000000000000e+01  7.0000000000000000e+01  7.0000000000000000e+01  7.0000000000000000e+01  7.0000000000000000e+01  7.0000000000000000e+01  7.0000000000000000e+01  7.0000000000000000e+01  7.0000000000000000e+01  7.0000000000000000e+01  7.0000000000000000e+01  7.0000000000000000e+01  7.0000000000000000e+01  7.0000000000000000e+01  7.0000000000000000e+01  7.0000000000000000e+01  7.0000000000000000e+01  7.0000000000000000e+01  7.0000000000000000e+01  7.0000000000000000e+01  7.0000000000000000e+01  6.9999999999999986e+01  7.0000000000000000e+01  7.0000000000000000e+01  7.0000000000000000e+01  7.0000000000000000e+01  7.0000000000000000e+01  7.0000000000000000e+01  7.0000000000000000e+01  7.0000000000000000e+01  7.0000000000000000e+01  7.0000000000000000e+01  8.2895531483972661e+01  9.6284636372314253e+01  1.0987181354446061e+02  1.2357899231325749e+02  1.3737471543549754e+02  1.5124920800360505e+02  1.6517640862580174e+02  1.7915351880168234e+02  1.9318738433593643e+02  2.0726051896068387e+02  2.2138393309493802e+02  2.3556872458500271e+02  2.4979788284271811e+02  2.6408983350657201e+02  2.7844533894698242e+02  2.9287695973882109e+02  3.0738291659292111e+02  3.2197322331065027e+02  3.3665114908454171e+02  3.5141573380804101e+02  3.6627263068306343e+02  3.8120700260358791e+02  3.9622791998611575e+02  4.1131743266395023e+02  4.2645547656495035e+02  4.4164245980449800e+02  4.5683548521937979e+02  4.7201408115452807e+02  4.8715532086382387e+02  5.0220244316196670e+02  5.1714495990901742e+02  5.3191620768726227e+02  5.4649187058744235e+02  5.6082028462110986e+02  5.7485181260270315e+02  5.8854715601062196e+02  6.0185929035497873e+02  6.1475146656092420e+02  6.2718532123163072e+02  6.3911448471793926e+02  6.5052965707239912e+02  6.6140203494042896e+02  6.7168020244403988e+02  6.8138609800368306e+02  6.9049956433679370e+02  6.9900057339976809e+02  7.0689580870037025e+02  7.1420231148803134e+02  7.2090115097998500e+02  7.2702592830244907e+02  7.3259858579777006e+02  7.3761167041177589e+02  7.4209494971871959e+02  7.4609742550042552e+02  7.4959112741985018e+02  7.5260135989132482e+02  7.5519180046800648e+02  7.5735853547186275e+02  7.5910442189811772e+02  7.6044962527626126e+02  7.6142105533412530e+02  7.6202062377271204e+02  7.6226053353509838e+02  7.6213047439872071e+02  7.6163905954128177e+02  7.6078870749325574e+02  7.5957706573114160e+02  7.5800123221318120e+02  7.5605976266780328e+02  7.5372374574318121e+02  7.5099725222206234e+02  7.4786889997591663e+02  7.4433041403939569e+02  7.4036068314638374e+02  7.3596355931677670e+02  7.3112174382589058e+02  7.2581176307790906e+02  7.2003371201386767e+02  7.1376842546069588e+02  7.0699932218947083e+02  6.9972346699431591e+02  6.9192765204787861e+02  6.8359764942502727e+02  6.7472175377662359e+02  6.6529153762922590e+02  6.5529925634921995e+02  6.4473281998849109e+02  6.3358432799947866e+02  6.2184368057607389e+02  6.0950687161091219e+02  5.9658031481901560e+02  5.8306287591979640e+02  5.6894510452158943e+02  5.5423194806729873e+02  5.3892850141253928e+02  5.2303279269768166e+02  5.0658650347303006e+02  4.8959935490256487e+02  4.7204252919826052e+02  4.5395977394232915e+02  4.3537722312089352e+02  4.1630921178379265e+02  3.9677793920429639e+02  3.7679683160776699e+02  3.5640104391732552e+02  3.3561929718978354e+02  3.1448718478610408e+02  2.9300450999201075e+02  2.7121005282202350e+02  2.4913417056510863e+02  2.2681507017625896e+02  2.0427873332218130e+02  1.8153549774754208e+02  1.5863896248284703e+02  1.3560947594400810e+02  1.1248126467207919e+02  8.9293535070900148e+01  6.6092332050779547e+01  4.2933911926326076e+01  2.0000000000000000e+01  2.0000000000000000e+01  2.0000000000000000e+01  2.0000000000000000e+01  2.0000000000000000e+01  2.0000000000000000e+01  2.0000000000000000e+01  2.0000000000000000e+01  2.0000000000000000e+01  2.0000000000000000e+01  2.0000000000000000e+01  2.0000000000000000e+01  2.0000000000000000e+01  2.0000000000000000e+01  2.0000000000000000e+01  2.0000000000000000e+01  2.0000000000000000e+01  2.0000000000000000e+01  2.0000000000000000e+01  2.0000000000000000e+01  2.0000000000000000e+01  2.0000000000000000e+01  2.0000000000000000e+01  2.0000000000000000e+01  2.0000000000000000e+01  2.0000000000000000e+01  2.0000000000000000e+01  2.0000000000000000e+01  2.0000000000000000e+01  2.0000000000000000e+01  2.0000000000000000e+01  2.0000000000000000e+01  2.0000000000000000e+01  2.0000000000000000e+01  2.0000000000000000e+01  2.0000000000000000e+01  2.0000000000000000e+01  2.0000000000000000e+01  2.0000000000000000e+01  2.0000000000000000e+01  2.0000000000000000e+01  2.0000000000000000e+01  2.0000000000000000e+01  2.0000000000000000e+01  2.0000000000000000e+01  2.0000000000000000e+01  2.0000000000000000e+01  2.0000000000000000e+01  2.0000000000000000e+01  2.0000000000000000e+01  2.0000000000000000e+01  2.0000000000000000e+01  2.0000000000000000e+01  2.0000000000000000e+01  2.0000000000000000e+01  2.0000000000000000e+01  2.0000000000000000e+01  2.0000000000000000e+01  2.0000000000000000e+01  2.0594011290440019e+02  3.4205099724260253e+02  4.5898934346175571e+02  5.6348686061584283e+02  6.5799615499783840e+02  7.4517496029959739e+02  8.2646667578014797e+02  9.0251316307477043e+02  9.7401552469297962e+02  1.0415683088140004e+03  1.1054673675216407e+03  1.1661695687267120e+03  1.2239445554102642e+03  1.2789454015059250e+03  1.3314259516689781e+03  1.3817226564627792e+03  1.4297639088897288e+03  1.4757917156606854e+03  1.5198916204729267e+03  1.5622453158338089e+03  1.6029525052339668e+03  1.6420698382186329e+03  1.6798259637171491e+03  1.7161561970341004e+03  1.7512368002430189e+03  1.7851306555484784e+03  1.8179111488452745e+03  1.8496693009099472e+03  1.8804756566094586e+03  1.9103872696013430e+03  1.9394642090789837e+03  1.9677604656899300e+03  1.9953266631844192e+03  2.0222083142640899e+03  2.0484483812553858e+03  2.0740620875438594e+03  2.0990760898008043e+03  2.1235094065710264e+03  2.1473785069750334e+03  2.1706918343740717e+03  2.1934557317679000e+03  2.2156458522412690e+03  2.2372520453570987e+03  2.2583092214689500e+03  2.2787691186727002e+03  2.2985962727801311e+03  2.3177736815239377e+03  2.3362945847339497e+03  2.3541215564409904e+03  2.3712021418495274e+03  2.3875096731024528e+03  2.4030272053121353e+03  2.4177141108597739e+03  2.4314927779246937e+03  2.4443134484975299e+03  2.4562703873759297e+03  2.4671726974867520e+03  2.4770042291666168e+03  2.4858643501365423e+03  2.4935785810616749e+03  2.5001899308763414e+03  2.5056658793530783e+03  2.5099925139178313e+03  2.5131655252275536e+03  2.5151631493176687e+03  2.5159918957435266e+03  2.5156547923736157e+03  2.5140892540904183e+03  2.5113414757625810e+03  2.5074206695428029e+03  2.5022546207809723e+03  2.4958996149793911e+03  2.4883005081604920e+03  2.4793914280265294e+03  2.4692592293607800e+03  2.4578076309689413e+03  2.4449548780576547e+03  2.4308032585169135e+03  2.4152326800595847e+03  2.3981786971463926e+03  2.3796594953914155e+03  2.3595781269619824e+03  2.3379454300071570e+03  2.3147676022457185e+03  2.2899406049357472e+03  2.2634893089423626e+03  2.2353842766566900e+03  2.2056200518429314e+03  2.1741866671418484e+03  2.1411248915054116e+03  2.1064387712586927e+03  2.0700752564672835e+03  2.0321559361932700e+03  1.9926838516329854e+03  1.9515812125269752e+03  1.9090238342360938e+03  1.8648740468403639e+03  1.8192038301302759e+03  1.7720123977937558e+03  1.7233010140609520e+03  1.6729774281605680e+03  1.6209767812247967e+03  1.5673507222024202e+03  1.5118866633946518e+03  1.4545287705341116e+03  1.3951452638150677e+03  1.3335598379775652e+03  1.2695890164099003e+03  1.2029735770314899e+03  1.1334356836097691e+03  1.0606405185530718e+03  9.8411914037527595e+02  9.0346935020015826e+02  8.1777459956848361e+02  7.2620358514981274e+02  6.2754990900391908e+02  5.1952687668643705e+02  3.9904916140132741e+02  2.5889340476484301e+02  5.7669122997124020e+02  5.9402245974251105e+02  6.1171620605418764e+02  6.2979954777599301e+02  6.4821830760183013e+02  6.6698861938660423e+02  6.8612261091718608e+02  7.0564643554183544e+02  7.2551672157500923e+02  7.4577440977774870e+02  7.6646844408446680e+02  7.8763732281631565e+02  8.0920286984064467e+02  8.3131083165169639e+02  8.5397277461370300e+02  8.7722836811130389e+02  9.0113819890536297e+02  9.2575307448690478e+02  9.5113520990116035e+02  9.7739443101608663e+02  1.0045366210290802e+03  1.0326221726542633e+03  1.0616976572732690e+03  1.0918679858836567e+03  1.1229446890226645e+03  1.1551676901200626e+03  1.1883796723538696e+03  1.2224937702033551e+03  1.2573216009761120e+03  1.2928686920202238e+03  1.3286675984235260e+03  1.4005264368591936e+03  1.4360169637889232e+03  1.4708004362409908e+03  1.5046385492427721e+03  1.5373585452231337e+03  1.5686069820188472e+03  1.5983336785568354e+03  1.6264551569461346e+03  1.6527792613860222e+03  1.6771559875742357e+03  1.6995206316385097e+03  1.7199570973304169e+03  1.7382386858942023e+03  1.7543373517774698e+03  1.7682591610706509e+03  1.7799286814305094e+03  1.7892262751771013e+03  1.7961568608757877e+03  1.8006483925067396e+03  1.8026520821658198e+03  1.8020838620815043e+03  1.7988772111568794e+03  1.7931658847358631e+03  1.7847701048315819e+03  1.7736234905557733e+03  1.7597833323766761e+03  1.7432327097713621e+03  1.7240235201814132e+03  1.7021784991424522e+03  1.6777058077363540e+03  1.6507302257038775e+03  1.5893756405757704e+03  1.5554404111723679e+03  1.5193098739387383e+03  1.4811988725305619e+03  1.4413544008118261e+03  1.3998770139338430e+03  1.3571505897728118e+03  1.3129992727641388e+03  1.2681013999878203e+03  1.2224338382962374e+03  1.1762586205975197e+03  1.1297680303393183e+03  1.0832656944809810e+03  1.0370094577811608e+03  9.9112903897046522e+02  9.4595412032704837e+02  9.0164316808530020e+02  8.5832155156014721e+02  8.1623912654265587e+02  7.7559406849003074e+02  7.3645584865421574e+02  6.9898669420446868e+02  6.6336113044020135e+02  6.2947590689618062e+02  5.9755613712645948e+02  5.6761974895140611e+02  5.3971860529616333e+02  5.1384229110482215e+02  4.8982633712321837e+02  4.6807031717443942e+02  4.4813611051401386e+02  4.1416292624206278e+02  4.0002915492540109e+02  3.8769020675077371e+02  3.7710168901306565e+02  3.6820362791228746e+02  3.6092934516926249e+02  3.5523213962249395e+02  3.5102432806268376e+02  3.4824787768781681e+02  3.4688087108753587e+02  3.4682579483772014e+02  3.4800569759815949e+02  3.5040201589890177e+02  3.5394845336453545e+02  3.5857331145093599e+02  3.6424450737784559e+02  3.7089631206403493e+02  3.7846798422628035e+02  3.8694770078222882e+02  3.9630409617466364e+02  4.0640877163360227e+02  4.1728979759349102e+02  4.2889070163861965e+02  4.4118065213815424e+02  4.5411649285710376e+02  4.6765790929846685e+02  4.8172283885436246e+02  4.9640256004048109e+02  5.1149644992985600e+02  5.2718151636130290e+02  5.4326289422656077e+02  1.4004038115313467e+03  1.4333379004450489e+03  1.4658687252330744e+03  1.4977644075114822e+03  1.5288534644980789e+03  1.5589959782512437e+03  1.5881161265724324e+03  1.6161708675392317e+03  1.6431258623210585e+03  1.6689280263707435e+03  1.6936429251134678e+03  1.7172625803489416e+03  1.7397756511981788e+03  1.7612012212241946e+03  1.7815328280431791e+03  1.8007288193829143e+03  1.8187666825889100e+03  1.8355621810249195e+03  1.8511402065819323e+03  1.8654015227282703e+03  1.8782632438232101e+03  1.8896621860426535e+03  1.8995407807678494e+03  1.9078207256294113e+03  1.9144429787925621e+03  1.9193300624233875e+03  1.9224511985374784e+03  1.9237389837811893e+03  1.9231494313148655e+03  1.9206446018028792e+03  1.9162777647117705e+03  1.9017704010105592e+03  1.8916139009279541e+03  1.8795928268528605e+03  1.8657433663398579e+03  1.8501102036468833e+03  1.8327406466866760e+03  1.8136705143529944e+03  1.7930678512212746e+03  1.7709616593078308e+03  1.7474531817187399e+03  1.7226680382498680e+03  1.6967177706003611e+03  1.6697233982444557e+03  1.6418064765646602e+03  1.6131359215879734e+03  1.5838487926113680e+03  1.5540771587849356e+03  1.5239976902476371e+03  1.4937430980872921e+03  1.4634599902027587e+03  1.4333819499632571e+03  1.4035786968521779e+03  1.3742610558182150e+03  1.3455408711163784e+03  1.3175514731964672e+03  1.2904512067632295e+03  1.2642727683058067e+03  1.2392396323977644e+03  1.2152330493738093e+03  1.1923747803773490e+03  1.1707177965364071e+03  1.3343350762671507e+03  1.3017545823166110e+03  1.2698789532975018e+03  1.2388650577333226e+03  1.2090368733910748e+03  1.1805324653080002e+03  1.1534580953591269e+03  1.1279486441831721e+03  1.1039715577664026e+03  1.0816822605727277e+03  1.0609751281161982e+03  1.0418385164762540e+03  1.0242386200716944e+03  1.0080991031547211e+03  9.9336355742816295e+02  9.7998793549681750e+02  9.6782168559450270e+02  9.5685505976475326e+02  9.4699477071034642e+02  9.3816060629358572e+02  9.3029452323447424e+02  9.2331487512837919e+02  9.1718027341913444e+02  9.1181459988614449e+02  9.0718616285466703e+02  9.0320319827534877e+02  8.9986428710400605e+02  8.9711432796706720e+02  8.9492496125781611e+02  8.9326383537036770e+02  8.9210406789660374e+02  8.9120936964428040e+02  8.9144681077932194e+02  8.9212564780539674e+02  8.9324111015486960e+02  8.9479806343329028e+02  8.9679211997662230e+02  8.9923028802392389e+02  9.0212067281586553e+02  9.0546866431512763e+02  9.0929758357289393e+02  9.1360467549034308e+02  9.1841729225878873e+02  9.2374949762082633e+02  9.2962042100413407e+02  9.3604081184763322e+02  9.4303707074031831e+02  9.5061720967440510e+02  9.5880064696665477e+02  9.6761345644554717e+02  9.7707277931984447e+02  9.8719212805137568e+02  9.9798629814428296e+02  1.0094814209517516e+03  1.0217129918676223e+03  1.0347213625165812e+03  1.0484829201430946e+03  1.0630829624404228e+03  1.0785471297656238e+03  1.0949400427711425e+03  1.1123048272036642e+03  1.1306804561572674e+03  7.9528570667862334e+02  8.0250680396267194e+02  8.0981875867690928e+02  8.1722073300130069e+02  8.2470516606572414e+02  8.3227771265567992e+02  8.3993931084510155e+02  8.4769112463238503e+02  8.5552893945564381e+02  8.6346523669998612e+02  8.7150878235393714e+02  8.7965556439079194e+02  8.8792461239887496e+02  8.9631960324525380e+02  9.0485096945492398e+02  9.1354410434480451e+02  9.2239052207723648e+02  9.3141177024762953e+02  9.4063736702987580e+02  9.5006607167141954e+02  9.5970268834620458e+02  9.6957809695361436e+02  9.7969700477029539e+02  9.9006981217771249e+02  1.0007086972925681e+03  1.0116093780196495e+03  1.0227598911348066e+03  1.0341424771366783e+03  1.0457398506873255e+03  1.0575267929818540e+03  1.0694297698501157e+03  7.8116295863371579e+02  7.7427304545295533e+02  7.6750600839405945e+02  7.6087543777067106e+02  7.5440181589816757e+02  7.4809159913259361e+02  7.4196250853391075e+02  7.3603763495640192e+02  7.3033244665381847e+02  7.2486354618651978e+02  7.1965376525433112e+02  7.1472854617558562e+02  7.1009803522659047e+02  7.0580200455819443e+02  7.0185454728740297e+02  6.9828292508650952e+02  6.9510872976202120e+02  6.9235914261006496e+02  6.9006374528802291e+02  6.8824003512076729e+02  6.8692015543138189e+02  6.8613137880438546e+02  6.8589279107577613e+02  6.8622730055208399e+02  6.8718278228030454e+02  6.8875123539101708e+02  6.9097067773410447e+02  6.9386203470375597e+02  6.9744978274239168e+02  7.0176041485301448e+02  7.0679078681321005e+02  7.1909502033454862e+02  7.2639373092409483e+02  7.3446896312182275e+02  7.4330302833597432e+02  7.5291339128053869e+02  7.6328050217222255e+02  7.7439836286806633e+02  7.8623787384419052e+02  7.9879928491336511e+02  8.1201727319023462e+02  8.2588095257237876e+02  8.4034524240171345e+02  8.5535397496345831e+02  8.7084601598911001e+02  8.8678431419608319e+02  9.0307775668135423e+02  9.1967043262426830e+02  9.3649080669822933e+02  9.5346056207207562e+02  9.7049682394652575e+02  9.8751303794398541e+02  1.0044288263395139e+03  1.0212092001425973e+03  1.0377214854215642e+03  1.0538958068348359e+03  1.0696726718402329e+03  1.0849836413395783e+03  1.0997510098666053e+03  1.1139172167290894e+03  1.1274216255815718e+03  1.1402435385919800e+03  1.1635178973170537e+03  1.1739294418022271e+03  1.1834713750519470e+03  1.1921108532815199e+03  1.1998440635504610e+03  1.2066408793607325e+03  1.2124968040471238e+03  1.2173940351941981e+03  1.2213213643402328e+03  1.2243012932803545e+03  1.2263147208530067e+03  1.2273830383037996e+03  1.2274945576384735e+03  1.2266750875846328e+03  1.2249250750242652e+03  1.2222610083777474e+03  1.2187027931638474e+03  1.2142647084469761e+03  1.2089713194174556e+03  1.2028464966568283e+03  1.1959197530723518e+03  1.1882229685871821e+03  1.1797914063253390e+03  1.1706852600604495e+03  1.1609533385730369e+03  1.1506522414507949e+03  1.1398662229777260e+03  1.1286591336978011e+03  1.1171295006777964e+03  1.1053537582054885e+03  1.0934299699356775e+03  1.6296730234307872e+03  9.5831680019599401e+02  1.7939489971526611e+03  9.2937487195144672e+02  1.2517453605445799e+03  8.9693514077194516e+02  1.8335870417821029e+03  8.4196910674613571e+02  9.0715816970954359e+02  8.3700114082145728e+02  3.6067934840852200e+02  3.9020594697432341e+02  6.8415731221575368e+02  6.7059868742533376e+02  9.2309773382408810e+02  1.1060443855842930e+03  9.8078226992624184e+02  7.0235675384978867e+02  7.5561865040475573e+02  3.4679694139497445e+02  9.0788839800303526e+02  8.6283543406324986e+02  1.7395499499499736e+03  1.2515710748071269e+03  9.2254775802750555e+02  7.5453839243361665e+02  1.8021465721379550e+03  1.8901162849577661e+03  7.4583485036178431e+01  4.3217169331841504e+01  1.2585453165335773e+03  2.4405533277339853e+02  3.2496592482247161e+02  1.2079149761027188e+03  8.3112482192615118e+01  1.2115457074730053e+02  1.2925384288447342e+03  7.7558982618293498e+02  4.3455281138542449e+02  6.6616115608180280e+02  7.2649137158587087e+02  3.5234468961207125e+02  6.1252832808708968e+02  1.0550873004845230e+03  9.0076816320045737e+02  8.9463590799436986e+02  8.2992793334453950e+02  1.2350500111462666e+03  1.8288283715876883e+03  6.7740985105261097e+02  1.9241445903736972e+03  1.7682487975781862e+03  2.2324876242412001e+03  7.4183662606423422e+02  2.4361987941750926e+03  6.9027616497149700e+02  1.4618620692285551e+03  4.8876848450497693e+02  6.6967692153130713e+02  7.3010672964427192e+02  1.1214815208291895e+03  7.5513777503505514e+02  3.8138197736082208e+02  5.0159277249117747e+02  1.2010462756451366e+03  1.8947913565247529e+03  6.0266090480959463e+02  8.9026324504589263e+02  7.9843320286451694e+02  8.8792105742921501e+02  1.6905627456323784e+03  1.9297118623781735e+03  6.9567523382403795e+02  4.6544222122812734e+01  6.5526275827398081e+01  1.5523433790502836e+03  3.1659956865337125e+02  1.2356346179908330e+03  9.3364036422461947e+02  9.3672308510382004e+02  1.7553603225698603e+03  1.4542640882941771e+03  4.2833090133195697e+02  8.5237975988575258e+01  1.1045608892435538e+02  7.1423020138886557e