<?xml version="1.0"?>
<VTKFile type="UnstructuredGrid"  version="0.1"  >
<UnstructuredGrid>
<Piece  NumberOfPoints="16179" NumberOfCells="31996">
<Points>
<DataArray  type="Float64"  NumberOfComponents="3"  format="ascii">0 0 0  0 1 0  2 1 0  2 0 0  0.5 0.7 0  0.7 0.5 0  0.5 0.3 0  0.3 0.5 0  0.8 0.5 0  1 0.3 0  1.2 0.5 0  1 0.7 0  1.5 0.3 0  1.7 0.5 0  1.5 0.7 0  1.3 0.5 0  0 0.01666666666666667 0  0 0.03333333333333333 0  0 0.05 0  0 0.06666666666666667 0  0 0.08333333333333333 0  0 0.1 0  0 0.1166666666666667 0  0 0.1333333333333333 0  0 0.15 0  0 0.1666666666666667 0  0 0.1833333333333333 0  0 0.2 0  0 0.2166666666666667 0  0 0.2333333333333333 0  0 0.25 0  0 0.2666666666666667 0  0 0.2833333333333333 0  0 0.3 0  0 0.3166666666666667 0  0 0.3333333333333333 0  0 0.35 0  0 0.3666666666666666 0  0 0.3833333333333334 0  0 0.4 0  0 0.4166666666666667 0  0 0.4333333333333333 0  0 0.45 0  0 0.4666666666666667 0  0 0.4833333333333333 0  0 0.5 0  0 0.5166666666666667 0  0 0.5333333333333333 0  0 0.55 0  0 0.5666666666666667 0  0 0.5833333333333334 0  0 0.6 0  0 0.6166666666666667 0  0 0.6333333333333333 0  0 0.65 0  0 0.6666666666666666 0  0 0.6833333333333333 0  0 0.7 0  0 0.7166666666666667 0  0 0.7333333333333333 0  0 0.75 0  0 0.7666666666666667 0  0 0.7833333333333333 0  0 0.8 0  0 0.8166666666666667 0  0 0.8333333333333334 0  0 0.85 0  0 0.8666666666666667 0  0 0.8833333333333333 0  0 0.9 0  0 0.9166666666666666 0  0 0.9333333333333333 0  0 0.95 0  0 0.9666666666666667 0  0 0.9833333333333333 0  0.01666666666666667 1 0  0.03333333333333333 1 0  0.05 1 0  0.06666666666666667 1 0  0.08333333333333333 1 0  0.1 1 0  0.1166666666666667 1 0  0.1333333333333333 1 0  0.15 1 0  0.1666666666666667 1 0  0.1833333333333333 1 0  0.2 1 0  0.2166666666666667 1 0  0.2333333333333333 1 0  0.25 1 0  0.2666666666666667 1 0  0.2833333333333333 1 0  0.3 1 0  0.3166666666666667 1 0  0.3333333333333333 1 0  0.35 1 0  0.3666666666666666 1 0  0.3833333333333334 1 0  0.4 1 0  0.4166666666666667 1 0  0.4333333333333333 1 0  0.45 1 0  0.4666666666666667 1 0  0.4833333333333333 1 0  0.5 1 0  0.5166666666666667 1 0  0.5333333333333333 1 0  0.55 1 0  0.5666666666666667 1 0  0.5833333333333334 1 0  0.6 1 0  0.6166666666666667 1 0  0.6333333333333333 1 0  0.65 1 0  0.6666666666666666 1 0  0.6833333333333333 1 0  0.7 1 0  0.7166666666666667 1 0  0.7333333333333333 1 0  0.75 1 0  0.7666666666666667 1 0  0.7833333333333333 1 0  0.8 1 0  0.8166666666666667 1 0  0.8333333333333334 1 0  0.85 1 0  0.8666666666666667 1 0  0.8833333333333333 1 0  0.9 1 0  0.9166666666666666 1 0  0.9333333333333333 1 0  0.95 1 0  0.9666666666666667 1 0  0.9833333333333333 1 0  1 1 0  1.016666666666667 1 0  1.033333333333333 1 0  1.05 1 0  1.066666666666667 1 0  1.083333333333333 1 0  1.1 1 0  1.116666666666667 1 0  1.133333333333333 1 0  1.15 1 0  1.166666666666667 1 0  1.183333333333333 1 0  1.2 1 0  1.216666666666667 1 0  1.233333333333333 1 0  1.25 1 0  1.266666666666667 1 0  1.283333333333333 1 0  1.3 1 0  1.316666666666667 1 0  1.333333333333333 1 0  1.35 1 0  1.366666666666667 1 0  1.383333333333333 1 0  1.4 1 0  1.416666666666667 1 0  1.433333333333333 1 0  1.45 1 0  1.466666666666667 1 0  1.483333333333333 1 0  1.5 1 0  1.516666666666667 1 0  1.533333333333333 1 0  1.55 1 0  1.566666666666667 1 0  1.583333333333333 1 0  1.6 1 0  1.616666666666667 1 0  1.633333333333333 1 0  1.65 1 0  1.666666666666667 1 0  1.683333333333333 1 0  1.7 1 0  1.716666666666667 1 0  1.733333333333333 1 0  1.75 1 0  1.766666666666667 1 0  1.783333333333333 1 0  1.8 1 0  1.816666666666667 1 0  1.833333333333333 1 0  1.85 1 0  1.866666666666667 1 0  1.883333333333333 1 0  1.9 1 0  1.916666666666667 1 0  1.933333333333333 1 0  1.95 1 0  1.966666666666667 1 0  1.983333333333333 1 0  2 0.9833333333333333 0  2 0.9666666666666667 0  2 0.95 0  2 0.9333333333333333 0  2 0.9166666666666666 0  2 0.9 0  2 0.8833333333333333 0  2 0.8666666666666667 0  2 0.85 0  2 0.8333333333333334 0  2 0.8166666666666667 0  2 0.8 0  2 0.7833333333333333 0  2 0.7666666666666666 0  2 0.75 0  2 0.7333333333333334 0  2 0.7166666666666667 0  2 0.7 0  2 0.6833333333333333 0  2 0.6666666666666667 0  2 0.65 0  2 0.6333333333333333 0  2 0.6166666666666667 0  2 0.6 0  2 0.5833333333333333 0  2 0.5666666666666667 0  2 0.55 0  2 0.5333333333333333 0  2 0.5166666666666666 0  2 0.5 0  2 0.4833333333333333 0  2 0.4666666666666667 0  2 0.45 0  2 0.4333333333333333 0  2 0.4166666666666666 0  2 0.4 0  2 0.3833333333333333 0  2 0.3666666666666667 0  2 0.35 0  2 0.3333333333333334 0  2 0.3166666666666667 0  2 0.3 0  2 0.2833333333333333 0  2 0.2666666666666667 0  2 0.25 0  2 0.2333333333333333 0  2 0.2166666666666667 0  2 0.2 0  2 0.1833333333333333 0  2 0.1666666666666666 0  2 0.15 0  2 0.1333333333333333 0  2 0.1166666666666667 0  2 0.09999999999999998 0  2 0.08333333333333337 0  2 0.06666666666666665 0  2 0.05000000000000004 0  2 0.03333333333333333 0  2 0.01666666666666672 0  1.983333333333333 0 0  1.966666666666667 0 0  1.95 0 0  1.933333333333333 0 0  1.916666666666667 0 0  1.9 0 0  1.883333333333333 0 0  1.866666666666667 0 0  1.85 0 0  1.833333333333333 0 0  1.816666666666667 0 0  1.8 0 0  1.783333333333333 0 0  1.766666666666667 0 0  1.75 0 0  1.733333333333333 0 0  1.716666666666667 0 0  1.7 0 0  1.683333333333333 0 0  1.666666666666667 0 0  1.65 0 0  1.633333333333333 0 0  1.616666666666667 0 0  1.6 0 0  1.583333333333333 0 0  1.566666666666667 0 0  1.55 0 0  1.533333333333333 0 0  1.516666666666667 0 0  1.5 0 0  1.483333333333333 0 0  1.466666666666667 0 0  1.45 0 0  1.433333333333333 0 0  1.416666666666667 0 0  1.4 0 0  1.383333333333333 0 0  1.366666666666667 0 0  1.35 0 0  1.333333333333333 0 0  1.316666666666667 0 0  1.3 0 0  1.283333333333333 0 0  1.266666666666667 0 0  1.25 0 0  1.233333333333333 0 0  1.216666666666667 0 0  1.2 0 0  1.183333333333333 0 0  1.166666666666667 0 0  1.15 0 0  1.133333333333333 0 0  1.116666666666667 0 0  1.1 0 0  1.083333333333333 0 0  1.066666666666667 0 0  1.05 0 0  1.033333333333333 0 0  1.016666666666667 0 0  1 0 0  0.9833333333333334 0 0  0.9666666666666666 0 0  0.95 0 0  0.9333333333333333 0 0  0.9166666666666667 0 0  0.8999999999999999 0 0  0.8833333333333333 0 0  0.8666666666666667 0 0  0.8500000000000001 0 0  0.8333333333333333 0 0  0.8166666666666667 0 0  0.8 0 0  0.7833333333333334 0 0  0.7666666666666666 0 0  0.75 0 0  0.7333333333333334 0 0  0.7166666666666666 0 0  0.7 0 0  0.6833333333333333 0 0  0.6666666666666667 0 0  0.6499999999999999 0 0  0.6333333333333333 0 0  0.6166666666666667 0 0  0.6000000000000001 0 0  0.5833333333333333 0 0  0.5666666666666667 0 0  0.55 0 0  0.5333333333333334 0 0  0.5166666666666666 0 0  0.5 0 0  0.4833333333333334 0 0  0.4666666666666666 0 0  0.45 0 0  0.4333333333333333 0 0  0.4166666666666667 0 0  0.3999999999999999 0 0  0.3833333333333333 0 0  0.3666666666666667 0 0  0.3500000000000001 0 0  0.3333333333333333 0 0  0.3166666666666667 0 0  0.3 0 0  0.2833333333333334 0 0  0.2666666666666666 0 0  0.25 0 0  0.2333333333333334 0 0  0.2166666666666666 0 0  0.2 0 0  0.1833333333333333 0 0  0.1666666666666667 0 0  0.1499999999999999 0 0  0.1333333333333333 0 0  0.1166666666666667 0 0  0.1000000000000001 0 0  0.08333333333333326 0 0  0.06666666666666665 0 0  0.05000000000000004 0 0  0.03333333333333344 0 0  0.01666666666666661 0 0  0.5098135348654835 0.6997590912410344 0  0.519603428065912 0.6990369453344394 0  0.5293460948910724 0.6978353019929562 0  0.5390180644032256 0.696157056080646 0  0.5485960359806528 0.6940062506389088 0  0.5580569354508924 0.6913880671464417 0  0.5673779706784439 0.6883088130366042 0  0.5765366864730179 0.6847759065022573 0  0.5855110186860564 0.6807978586246887 0  0.5942793473651995 0.676384252869671 0  0.6028205488386443 0.6715457220000545 0  0.6111140466039203 0.6662939224605091 0  0.6191398608984866 0.6606415062961291 0  0.6268786568327291 0.6546020906725474 0  0.6343117909694036 0.6481902250709918 0  0.6414213562373094 0.6414213562373094 0  0.6481902250709918 0.6343117909694037 0  0.6546020906725473 0.6268786568327291 0  0.6606415062961289 0.6191398608984866 0  0.666293922460509 0.6111140466039204 0  0.6715457220000544 0.6028205488386443 0  0.676384252869671 0.5942793473651996 0  0.6807978586246886 0.5855110186860565 0  0.6847759065022574 0.5765366864730179 0  0.6883088130366042 0.567377970678444 0  0.6913880671464417 0.5580569354508925 0  0.6940062506389088 0.5485960359806529 0  0.696157056080646 0.5390180644032257 0  0.6978353019929562 0.5293460948910724 0  0.6990369453344394 0.5196034280659121 0  0.6997590912410344 0.5098135348654836 0  0.6997590912410344 0.4901864651345164 0  0.6990369453344394 0.4803965719340879 0  0.6978353019929562 0.4706539051089277 0  0.696157056080646 0.4609819355967745 0  0.6940062506389088 0.4514039640193473 0  0.6913880671464417 0.4419430645491076 0  0.6883088130366042 0.4326220293215561 0  0.6847759065022574 0.4234633135269822 0  0.6807978586246888 0.4144889813139438 0  0.6763842528696711 0.4057206526348007 0  0.6715457220000545 0.3971794511613559 0  0.6662939224605091 0.3888859533960798 0  0.6606415062961292 0.3808601391015136 0  0.6546020906725476 0.3731213431672712 0  0.648190225070992 0.3656882090305966 0  0.6414213562373097 0.3585786437626908 0  0.6343117909694039 0.3518097749290084 0  0.6268786568327294 0.3453979093274528 0  0.6191398608984868 0.3393584937038713 0  0.6111140466039207 0.3337060775394911 0  0.6028205488386446 0.3284542779999458 0  0.5942793473651997 0.3236157471303291 0  0.5855110186860566 0.3192021413753114 0  0.5765366864730181 0.3152240934977427 0  0.5673779706784442 0.3116911869633959 0  0.5580569354508926 0.3086119328535583 0  0.5485960359806529 0.3059937493610912 0  0.5390180644032257 0.303842943919354 0  0.5293460948910724 0.3021646980070439 0  0.5196034280659122 0.3009630546655607 0  0.5098135348654836 0.3002409087589656 0  0.4901864651345165 0.3002409087589655 0  0.480396571934088 0.3009630546655606 0  0.4706539051089277 0.3021646980070438 0  0.46098193
[...]
<PointData  Scalars="f_20"> 
<DataArray  type="Float64"  Name="f_20"  format="ascii">0.0000000000000000e+00  0.0000000000000000e+00  0.0000000000000000e+00  0.0000000000000000e+00  3.9293831869367087e-02  5.2554499287700805e-02  3.9294599063747840e-02  3.5039227601891425e-02  4.9502431939263375e-02  4.9454855628074966e-02  4.9470453734077116e-02  4.9454855950773036e-02  4.3282475607757442e-02  4.3234585010873600e-02  4.3282470895295223e-02  4.3414638051598051e-02  0.0000000000000000e+00  0.0000000000000000e+00  0.0000000000000000e+00  0.0000000000000000e+00  0.0000000000000000e+00  0.0000000000000000e+00  0.0000000000000000e+00  0.0000000000000000e+00  0.0000000000000000e+00  0.0000000000000000e+00  0.0000000000000000e+00  0.0000000000000000e+00  0.0000000000000000e+00  0.0000000000000000e+00  0.0000000000000000e+00  0.0000000000000000e+00  0.0000000000000000e+00  0.0000000000000000e+00  0.0000000000000000e+00  0.0000000000000000e+00  0.0000000000000000e+00  0.0000000000000000e+00  0.0000000000000000e+00  0.0000000000000000e+00  0.0000000000000000e+00  0.0000000000000000e+00  0.0000000000000000e+00  0.0000000000000000e+00  0.0000000000000000e+00  0.0000000000000000e+00  0.0000000000000000e+00  0.0000000000000000e+00  0.0000000000000000e+00  0.0000000000000000e+00  0.0000000000000000e+00  0.0000000000000000e+00  0.0000000000000000e+00  0.0000000000000000e+00  0.0000000000000000e+00  0.0000000000000000e+00  0.0000000000000000e+00  0.0000000000000000e+00  0.0000000000000000e+00  0.0000000000000000e+00  0.0000000000000000e+00  0.0000000000000000e+00  0.0000000000000000e+00  0.0000000000000000e+00  0.0000000000000000e+00  0.0000000000000000e+00  0.0000000000000000e+00  0.0000000000000000e+00  0.0000000000000000e+00  0.0000000000000000e+00  0.0000000000000000e+00  0.0000000000000000e+00  0.0000000000000000e+00  0.0000000000000000e+00  0.0000000000000000e+00  0.0000000000000000e+00  0.0000000000000000e+00  0.0000000000000000e+00  0.0000000000000000e+00  0.0000000000000000e+00  0.0000000000000000e+00  0.0000000000000000e+00  0.0000000000000000e+00  0.0000000000000000e+00  0.0000000000000000e+00  0.0000000000000000e+00  0.0000000000000000e+00  0.0000000000000000e+00  0.0000000000000000e+00  0.0000000000000000e+00  0.0000000000000000e+00  0.0000000000000000e+00  0.0000000000000000e+00  0.0000000000000000e+00  0.0000000000000000e+00  0.0000000000000000e+00  0.0000000000000000e+00  0.0000000000000000e+00  0.0000000000000000e+00  0.0000000000000000e+00  0.0000000000000000e+00  0.0000000000000000e+00  0.0000000000000000e+00  0.0000000000000000e+00  0.0000000000000000e+00  0.0000000000000000e+00  0.0000000000000000e+00  0.0000000000000000e+00  0.0000000000000000e+00  0.0000000000000000e+00  0.0000000000000000e+00  0.0000000000000000e+00  0.0000000000000000e+00  0.0000000000000000e+00  0.0000000000000000e+00  0.0000000000000000e+00  0.0000000000000000e+00  0.0000000000000000e+00  0.0000000000000000e+00  0.0000000000000000e+00  0.0000000000000000e+00  0.0000000000000000e+00  0.0000000000000000e+00  0.0000000000000000e+00  0.0000000000000000e+00  0.0000000000000000e+00  0.0000000000000000e+00  0.0000000000000000e+00  0.0000000000000000e+00  0.0000000000000000e+00  0.0000000000000000e+00  0.0000000000000000e+00  0.0000000000000000e+00  0.0000000000000000e+00  0.0000000000000000e+00  0.0000000000000000e+00  0.0000000000000000e+00  0.0000000000000000e+00  0.0000000000000000e+00  0.0000000000000000e+00  0.0000000000000000e+00  0.0000000000000000e+00  0.0000000000000000e+00  0.0000000000000000e+00  0.0000000000000000e+00  0.0000000000000000e+00  0.0000000000000000e+00  0.0000000000000000e+00  0.0000000000000000e+00  0.0000000000000000e+00  0.0000000000000000e+00  0.0000000000000000e+00  0.0000000000000000e+00  0.0000000000000000e+00  0.0000000000000000e+00  0.0000000000000000e+00  0.0000000000000000e+00  0.0000000000000000e+00  0.0000000000000000e+00  0.0000000000000000e+00  0.0000000000000000e+00  0.0000000000000000e+00  0.0000000000000000e+00  0.0000000000000000e+00  0.0000000000000000e+00  0.0000000000000000e+00  0.0000000000000000e+00  0.0000000000000000e+00  0.0000000000000000e+00  0.0000000000000000e+00  0.0000000000000000e+00  0.0000000000000000e+00  0.0000000000000000e+00  0.0000000000000000e+00  0.0000000000000000e+00  0.0000000000000000e+00  0.0000000000000000e+00  0.0000000000000000e+00  0.0000000000000000e+00  0.0000000000000000e+00  0.0000000000000000e+00  0.0000000000000000e+00  0.0000000000000000e+00  0.0000000000000000e+00  0.0000000000000000e+00  0.0000000000000000e+00  0.0000000000000000e+00  0.0000000000000000e+00  0.0000000000000000e+00  0.0000000000000000e+00  0.0000000000000000e+00  0.0000000000000000e+00  0.0000000000000000e+00  0.0000000000000000e+00  0.0000000000000000e+00  0.0000000000000000e+00  0.0000000000000000e+00  0.0000000000000000e+00  0.0000000000000000e+00  0.0000000000000000e+00  0.0000000000000000e+00  0.0000000000000000e+00  0.0000000000000000e+00  0.0000000000000000e+00  0.0000000000000000e+00  0.0000000000000000e+00  0.0000000000000000e+00  0.0000000000000000e+00  0.0000000000000000e+00  0.0000000000000000e+00  0.0000000000000000e+00  0.0000000000000000e+00  0.0000000000000000e+00  0.0000000000000000e+00  0.0000000000000000e+00  0.0000000000000000e+00  0.0000000000000000e+00  0.0000000000000000e+00  0.0000000000000000e+00  0.0000000000000000e+00  0.0000000000000000e+00  0.0000000000000000e+00  0.0000000000000000e+00  0.0000000000000000e+00  0.0000000000000000e+00  0.0000000000000000e+00  0.0000000000000000e+00  0.0000000000000000e+00  0.0000000000000000e+00  0.0000000000000000e+00  0.0000000000000000e+00  0.0000000000000000e+00  0.0000000000000000e+00  0.0000000000000000e+00  0.0000000000000000e+00  0.0000000000000000e+00  0.0000000000000000e+00  0.0000000000000000e+00  0.0000000000000000e+00  0.0000000000000000e+00  0.0000000000000000e+00  0.0000000000000000e+00  0.0000000000000000e+00  0.0000000000000000e+00  0.0000000000000000e+00  0.0000000000000000e+00  0.0000000000000000e+00  0.0000000000000000e+00  0.0000000000000000e+00  0.0000000000000000e+00  0.0000000000000000e+00  0.0000000000000000e+00  0.0000000000000000e+00  0.0000000000000000e+00  0.0000000000000000e+00  0.0000000000000000e+00  0.0000000000000000e+00  0.0000000000000000e+00  0.0000000000000000e+00  0.0000000000000000e+00  0.0000000000000000e+00  0.0000000000000000e+00  0.0000000000000000e+00  0.0000000000000000e+00  0.0000000000000000e+00  0.0000000000000000e+00  0.0000000000000000e+00  0.0000000000000000e+00  0.0000000000000000e+00  0.0000000000000000e+00  0.0000000000000000e+00  0.0000000000000000e+00  0.0000000000000000e+00  0.0000000000000000e+00  0.0000000000000000e+00  0.0000000000000000e+00  0.0000000000000000e+00  0.0000000000000000e+00  0.0000000000000000e+00  0.0000000000000000e+00  0.0000000000000000e+00  0.0000000000000000e+00  0.0000000000000000e+00  0.0000000000000000e+00  0.0000000000000000e+00  0.0000000000000000e+00  0.0000000000000000e+00  0.0000000000000000e+00  0.0000000000000000e+00  0.0000000000000000e+00  0.0000000000000000e+00  0.0000000000000000e+00  0.0000000000000000e+00  0.0000000000000000e+00  0.0000000000000000e+00  0.0000000000000000e+00  0.0000000000000000e+00  0.0000000000000000e+00  0.0000000000000000e+00  0.0000000000000000e+00  0.0000000000000000e+00  0.0000000000000000e+00  0.0000000000000000e+00  0.0000000000000000e+00  0.0000000000000000e+00  0.0000000000000000e+00  0.0000000000000000e+00  0.0000000000000000e+00  0.0000000000000000e+00  0.0000000000000000e+00  0.0000000000000000e+00  0.0000000000000000e+00  0.0000000000000000e+00  0.0000000000000000e+00  0.0000000000000000e+00  0.0000000000000000e+00  0.0000000000000000e+00  0.0000000000000000e+00  0.0000000000000000e+00  0.0000000000000000e+00  0.0000000000000000e+00  0.0000000000000000e+00  0.0000000000000000e+00  0.0000000000000000e+00  0.0000000000000000e+00  0.0000000000000000e+00  0.0000000000000000e+00  0.0000000000000000e+00  0.0000000000000000e+00  0.0000000000000000e+00  0.0000000000000000e+00  0.0000000000000000e+00  0.0000000000000000e+00  0.0000000000000000e+00  0.0000000000000000e+00  0.0000000000000000e+00  0.0000000000000000e+00  0.0000000000000000e+00  0.0000000000000000e+00  0.0000000000000000e+00  0.0000000000000000e+00  0.0000000000000000e+00  0.0000000000000000e+00  0.0000000000000000e+00  0.0000000000000000e+00  0.0000000000000000e+00  0.0000000000000000e+00  0.0000000000000000e+00  0.0000000000000000e+00  0.0000000000000000e+00  0.0000000000000000e+00  0.0000000000000000e+00  0.0000000000000000e+00  0.0000000000000000e+00  0.0000000000000000e+00  0.0000000000000000e+00  0.0000000000000000e+00  0.0000000000000000e+00  0.0000000000000000e+00  0.0000000000000000e+00  0.0000000000000000e+00  0.0000000000000000e+00  0.0000000000000000e+00  0.0000000000000000e+00  0.0000000000000000e+00  0.0000000000000000e+00  0.0000000000000000e+00  0.0000000000000000e+00  0.0000000000000000e+00  0.0000000000000000e+00  0.0000000000000000e+00  0.0000000000000000e+00  3.9663123582761355e-02  4.0062050861996254e-02  4.0491042075422805e-02  4.0949998769691201e-02  4.1435682319991896e-02  4.1947261979801566e-02  4.2483444891576197e-02  4.3041356193572133e-02  4.3617544095932166e-02  4.4208385568895392e-02  4.4809832521715047e-02  4.5416914405216488e-02  4.6025842420335944e-02  4.6631433272595009e-02  4.7228510557433018e-02  4.7812101894930903e-02  4.8376998848447116e-02  4.8918245648570030e-02  4.9431158689368655e-02  4.9911001929743286e-02  5.0355165975576141e-02  5.0759732169964877e-02  5.1121938301138925e-02  5.1441910072025851e-02  5.1718131760488270e-02  5.1951674523501364e-02  5.2143530147430443e-02  5.2295916774687742e-02  5.2411217375315268e-02  5.2491921317069555e-02  5.2538981556948576e-02  5.2538846421124684e-02  5.2492028460594559e-02  5.2411644154060376e-02  5.2296103183317108e-02  5.2143769065121186e-02  5.1951201191698639e-02  5.1718172245942932e-02  5.1441780263708291e-02  5.1122358410863607e-02  5.0759455196283394e-02  5.0355005632959138e-02  4.9911014924984405e-02  4.9430421896146395e-02  4.8917912359845585e-02  4.8376812048776828e-02  4.7812467401069175e-02  4.7228465652267529e-02  4.6631207171940157e-02  4.6025731855598245e-02  4.5416826489939020e-02  4.4809530507281009e-02  4.4208855965715693e-02  4.3617926958627054e-02  4.3041178297731693e-02  4.2483522922108392e-02  4.1947440300123144e-02  4.1435539167103144e-02  4.0949914898825074e-02  4.0491099309412797e-02  4.0061924791930111e-02  3.9663082249435357e-02  3.8955536766106649e-02  3.8644144228535814e-02  3.8360397873780448e-02  3.8103328322858676e-02  3.7870239944048527e-02  3.7659165202116623e-02  3.7467855193112458e-02  3.7293753697004640e-02  3.7135695886977446e-02  3.6989558825383802e-02  3.6853699682274824e-02  3.6725139712253968e-02  3.6603552749732267e-02  3.6486650718377436e-02  3.6373051280312499e-02  3.6261663965076567e-02  3.6151613376061702e-02  3.6042560753662051e-02  3.5934704448790010e-02  3.5828394944849254e-02  3.5724168896573864e-02  3.5623060465054424e-02  3.5525905525645676e-02  3.5433752641348210e-02  3.5348436593099143e-02  3.5271234690422267e-02  3.5203504711581561e-02  3.5145894688311086e-02  3.5099613413355567e-02  3.5068060698715445e-02  3.5046681691193647e-02  3.5045626890065691e-02  3.5066332227884411e-02  3.5100208355769935e-02  3.5145982999557429e-02  3.5203151840544129e-02  3.5271076100681663e-02  3.5348593408696900e-02  3.5434148224258694e-02  3.5525771390339314e-02  3.5622869575503271e-02  3.5723697987467197e-02  3.5828047824326727e-02  3.5934906931441718e-02  3.6042662597770947e-02  3.6151642713637105e-02  3.6261751684789519e-02  3.6373256598078524e-02  3.6486993403176911e-02  3.6603902297863616e-02  3.6725858398202381e-02  3.6853439550340990e-02  3.6989344530531078e-02  3.7135329743495191e-02  3.7293725873632423e-02  3.7467944943166707e-02  3.7659742655817556e-02  3.7870322464187277e-02  3.8103929035577251e-02  3.8359867547510737e-02  3.8643478292936267e-02  3.8954529331780979e-02  4.9502321440104281e-02  4.9501990170212104e-02  4.9501442081497128e-02  4.9500684377609808e-02  4.9499726923369632e-02  4.9498575310746799e-02  4.9497253107776987e-02  4.9495763367327618e-02  4.9494135536040082e-02  4.9492373484868249e-02  4.9490499620962733e-02  4.9488523032856981e-02  4.9486470926325632e-02  4.9484350044667974e-02  4.9482196546651300e-02  4.9480006450541889e-02  4.9477825182163947e-02  4.9475630305062003e-02  4.9473471266581040e-02  4.9471367264490758e-02  4.9469316920897143e-02  4.9467348231083688e-02  4.9465477439114773e-02  4.9463711779021056e-02  4.9462071217349218e-02  4.9460563360953329e-02  4.9459201032174334e-02  4.9457995646056345e-02  4.9456959593020988e-02  4.9456082526743182e-02  4.9455377793234050e-02  4.9454505415471896e-02  4.9454324277814009e-02  4.9454313192331470e-02  4.9454460202109349e-02  4.9454762874662619e-02  4.9455209939759028e-02  4.9455773761422843e-02  4.9456471465335272e-02  4.9457258620382916e-02  4.9458143082575769e-02  4.9459084333779303e-02  4.9460081124897394e-02  4.9461106315433018e-02  4.9462142319791846e-02  4.9463173306068205e-02  4.9464182634567512e-02  4.9465150131485384e-02  4.9466056367073748e-02  4.9466888428449762e-02  4.9467642812420477e-02  4.9468303956896068e-02  4.9468864520477419e-02  4.9469335072818449e-02  4.9469698334187184e-02  4.9469977625696139e-02  4.9470175379973273e-02  4.9470308780766414e-02  4.9470387333186011e-02  4.9470428654995277e-02  4.9470448956808917e-02  4.9470454064594112e-02  4.9502321441871090e-02  4.9501990743958176e-02  4.9501442357861671e-02  4.9500688281766493e-02  4.9499729501881730e-02  4.9498577606688333e-02  4.9497247223655907e-02  4.9495765720624266e-02  4.9494139391496182e-02  4.9492372459613417e-02  4.9490495959355861e-02  4.9488523485406069e-02  4.9486463660966304e-02  4.9484354987134493e-02  4.9482201920523709e-02  4.9480003884997265e-02  4.9477813745854721e-02  4.9475632391218632e-02  4.9473476488248576e-02  4.9471368090498798e-02  4.9469319926941056e-02  4.9467352659419435e-02  4.9465473382161909e-02  4.9463718719621928e-02  4.9462066172679731e-02  4.9460556658825365e-02  4.9459197179678227e-02  4.9457997283847720e-02  4.9456957076825965e-02  4.9456083227663754e-02  4.9455382614727678e-02  4.9454503966400644e-02  4.9454324155084980e-02  4.9454313868282196e-02  4.9454460794683651e-02  4.9454762555226482e-02  4.9455206148228979e-02  4.9455778438092998e-02  4.9456470040287477e-02  4.9457267039901234e-02  4.9458136412503802e-02  4.9459087612010892e-02  4.9460077888463204e-02  4.9461108878166203e-02  4.9462144188762845e-02  4.9463175935324628e-02  4.9464179531102437e-02  4.9465147086555056e-02  4.9466054377823275e-02  4.9466889338994589e-02  4.9467640176090490e-02  4.9468300374171020e-02  4.9468864460950064e-02  4.9469329564401796e-02  4.9469699104293080e-02  4.9469978938933047e-02  4.9470177031918430e-02  4.9470309655696633e-02  4.9470386954179095e-02  4.9470427762901448e-02  4.9470445867320925e-02  4.9470451761120512e-02  4.3286133566994803e-02  4.3290048283482770e-02  4.3294188206203482e-02  4.3298563989571048e-02  4.3303159739590723e-02  4.3307988694606919e-02  4.3313008822962594e-02  4.3318206857858498e-02  4.3323563050835380e-02  4.3329059311257495e-02  4.3334638861852882e-02  4.3340303013309329e-02  4.3345997139192044e-02  4.3351692432732243e-02  4.3357357802299629e-02  4.3362933158278688e-02  4.3368404676320686e-02  4.3373731359677724e-02  4.3378853388164787e-02  4.3383743179862648e-02  4.3388369789273525e-02  4.3392704906965646e-02  4.3396711693853660e-02  4.3400368725789208e-02  4.3403640586174845e-02  4.3406514762414056e-02  4.3408969470081542e-02  4.3410994842865508e-02  4.3412582241220778e-02  4.3413715635811395e-02  4.3414400029755169e-02  4.3279042969921758e-02  4.3275847659833944e-02  4.3272891920772043e-02  4.3270138356125941e-02  4.3267586639439727e-02  4.3265222065466298e-02  4.3263022658832952e-02  4.3260980395413720e-02  4.3259073498825427e-02  4.3257281306317508e-02  4.3255593835227028e-02  4.3253981860055191e-02  4.3252456868975352e-02  4.3250978927051410e-02  4.3249557745865148e-02  4.3248178653195031e-02  4.3246838821480602e-02  4.3245536370609391e-02  4.3244272151787708e-02  4.3243047862104249e-02  4.3241869316190319e-02  4.3240745853431732e-02  4.3239683083849741e-02  4.3238694249573523e-02  4.3237793094940261e-02  4.3236980353922129e-02  4.3236272182491667e-02  4.3235675347841389e-02  4.3235201959139540e-02  4.3234860792868847e-02  4.3234654476071117e-02  4.3234654872102131e-02  4.3234864351197035e-02  4.3235204604825869e-02  4.3235674701127047e-02  4.3236271275406551e-02  4.3236976050756271e-02  4.3237790011448902e-02  4.3238693243270947e-02  4.3239686547482017e-02  4.3240747067204710e-02  4.3241870890686956e-02  4.3243049568727591e-02  4.3244272824327322e-02  4.3245538165326690e-02  4.3246838605262024e-02  4.3248181566005357e-02  4.3249560356157180e-02  4.3250981003218079e-02  4.3252453099137680e-02  4.3253987514292019e-02  4.3255593613220997e-02  4.3257286441572548e-02  4.3259072819933936e-02  4.3260978882115858e-02  4.3263024896673198e-02  4.3265220612274134e-02  4.3267582843572114e-02  4.3270135516097666e-02  4.3272889669141716e-02  4.3275855657147699e-02  4.3279053368805102e-02  4.3286133613885884e-02  4.3290031530365800e-02  4.3294182988573154e-02  4.3298568010282090e-02  4.3303169337993302e-02  4.3307982164209773e-02  4.3312998867691993e-02  4.3318217542759566e-02  4.3323564938185691e-02  4.3329037445659066e-02  4.3334648313128395e-02  4.3340285885064493e-02  4.3346006382991853e-02  4.3351681892135487e-02  4.3357347186760049e-02  4.3362938312349983e-02  4.3368403317017155e-02  4.3373724881429418e-02  4.3378848731288347e-02  4.3383749735647618e-02  4.3388375697110140e-02  4.3392709815155431e-02  4.3396722012831609e-02  4.3400366537470224e-02  4.3403635440916931e-02  4.3406513056634552e-02  4.3408970184905575e-02  4.3410993228987775e-02  4.3412570511161937e-02  4.3413714780075011e-02  4.3414411447592095e-02  4.8953584051825663e-02  4.9114547113541129e-02  4.6604381530534464e-02  4.8960712993542904e-02  4.3287836763066599e-02  4.3289392093794288e-02  4.8991413493001290e-02  4.6593260106556386e-02  4.2412035453907551e-02  4.2320545858220322e-02  3.5684349960705228e-02  3.6133736759338474e-02  4.2445352908203872e-02  4.2382420047529408e-02  3.5664451012733314e-02  3.6147129767888114e-02  4.2461232266809618e-02  4.2377170072810375e-02  3.5249030433590546e-02  3.5266908511886623e-02  4.8705378291992230e-02  4.2988896992634335e-02  4.8732339432820779e-02  4.2978421196696037e-02  4.8804899062638803e-02  4.4061958886770239e-02  4.4098793990593049e-02  4.8863515788511877e-02  2.0743211767590554e-03  2.0083106460617329e-03  2.0048418373467300e-03  1.9321825096853815e-03  2.0226203083429052e-03  2.0451615187053371e-03  1.9112973094347909e-03  1.9335984155335439e-03  3.6644300493813321e-02  4.2202555814683386e-02  3.6666867114913924e-02  4.2342759508907729e-02  4.2411183685669554e-02  3.4851049542646159e-02  3.4850859948900907e-02  4.2441553691254963e-02  4.8560754329348262e-02  4.8621482277053464e-02  4.2723508639024257e-02  4.2711734294473919e-02  4.8646733566544760e-02  4.1743918178016780e-02  4.8623286180485420e-02  4.1729262044607966e-02  3.0206756384512580e-03  2.9747458095174301e-03  3.1758779752166120e-03  3.0824464236073484e-03  3.7444820261892962e-02  3.7426037146670268e-02  4.2206932880528174e-02  4.2326743867663913e-02  4.2453445649986314e-02  4.2521140699587887e-02  3.4579471576276770e-02  3.4617496940190035e-02  4.2545191842125157e-02  4.8343411531277525e-02  3.9735681409200148e-02  4.8467697031718125e-02  4.2524522724613968e-02  4.8408636539289431e-02  3.9733271272133712e-02  4.8424792876005561e-02  4.2287572999548266e-02  2.4765466372509795e-03  2.4349264869278761e-03  2.1587171680475274e-03  2.1525823821412393e-03  4.3606417603574067e-02  4.3594029763537115e-02  4.8914242248849285e-02  4.9347637272531726e-02  2.4289394841481827e-03  2.4372435851722253e-03  2.3193582936636122e-03  2.2166692243650249e-03  2.9216177560278315e